
 Working directory              : /tmp/molpro.T4xf91TVyP/
 Global scratch directory       : /tmp/molpro.T4xf91TVyP/
 Wavefunction directory         : /root/wfu/
 Main file repository           : /tmp/molpro.T4xf91TVyP/

 id        : cardiff

 Nodes          nprocs
 buildkitsandbox    3
 Distribution of processes:   nprocs(total)=    4   nprocs(compute)=    3   nprocs(helper)=    1
 GA implementation: MPI file
 GA implementation (serial work in mppx): MPI file

 Using customized tuning parameters: mindgm=1; mindgv=20; mindgc=4; mindgr=1; noblas=0; minvec=7
 default implementation of scratch files=sf  


 Variables initialized (1028), CPU time= 0.00 sec
 ***,
 file,2,h2o2.wfu,new
 symmetry,x,y;geometry={
 h
 o,h,r
 h,o,r,h,theta
 }
 r=1.81246829                                                                    !optimize mp2/VTZ geometry
 theta=103.49307128
 
 basis=vdz
 
 ii=0
 hf
 ii=ii+1,pointgroup(ii)=pgroup,e(ii)=energy,group(ii)='C2v'
 
 Commands initialized (840), CPU time= 0.01 sec, 684 directives.
 Default parameters read. Elapsed time= 0.06 sec

 Checking input...
 Passed
1


                                         ***  PROGRAM SYSTEM MOLPRO  ***
                                       Copyright, TTI GmbH Stuttgart, 2015
                                    Version 2022.4 linked Fri Dec 23 11:22:17 2022


 **********************************************************************************************************************************
 LABEL *                                                                                 
  64 bit mpp version                                                                     DATE: 23-Dec-22          TIME: 11:32:29  
 **********************************************************************************************************************************

 SHA1:             7e44cf2f6be76d642bd6abc86082413581aa3b85
 **********************************************************************************************************************************

 Memory per process:        32 MW
 Total memory per node:     96 MW

 GA preallocation disabled
 GA check disabled

 Variable memory set to 32.0 MW



 Permanent file  2  h2o2.wfu assigned.  Implementation=df  



 **********************************************************************************************************************************
 DATASETS  * FILE   NREC   LENGTH (MB)   RECORD NAMES
              2       1        0.03       500   
                                          VAR  

 PROGRAMS   *        TOTAL      FILE
 CPU TIMES  *         0.10      0.00
 REAL TIME  *         0.12 SEC
 DISK USED  *         0.08 MB (local),        0.25 MB (total)
 **********************************************************************************************************************************
 ZSYMEL=X  Y  

 SETTING R              =         1.81246829                                  
 SETTING THETA          =       103.49307128                                  
 SETTING BASIS          =    VDZ
 SETTING II             =      0.0000000D+00                                  


 Recomputing integrals since basis changed


 Using spherical harmonics

 Library entry H      S cc-pVDZ              selected for orbital group  1
 Library entry H      P cc-pVDZ              selected for orbital group  1
 Library entry O      S cc-pVDZ              selected for orbital group  2
 Library entry O      P cc-pVDZ              selected for orbital group  2
 Library entry O      D cc-pVDZ              selected for orbital group  2


 PROGRAM * SEWARD (Integral evaluation for generally contracted gaussian basis sets)     Author: Roland Lindh, 1990

 Geometry written to block  1 of record 700

 Orientation using atomic masses  
 Molecule type: Asymmetric top,     Order of principal axis = 2
 User-specified symmetry elements: X,Y
 Symmetry elements: X,Y
 Rotational constants:     284.7407869    800.5104367    441.9375428 GHz  (calculated with average atomic masses)

 Point group  C2v 



 ATOMIC COORDINATES

 NR  ATOM    CHARGE       X              Y              Z

   1  H       1.00    0.000000000   -1.423294186    0.996604776
   2  H       1.00    0.000000000    1.423294186    0.996604776
   3  O       8.00    0.000000000    0.000000000   -0.125569436

 Bond lengths in Bohr (Angstrom)

 1-3  1.812468290  2-3  1.812468290
     ( 0.959116915)     ( 0.959116915)

 Bond angles

  1-3-2  103.49307128

 NUCLEAR CHARGE:                   10
 NUMBER OF PRIMITIVE AOS:          41
 NUMBER OF SYMMETRY AOS:           40
 NUMBER OF CONTRACTIONS:           24   (   11A1  +    4B1  +    7B2  +    2A2  )
 NUMBER OF INNER CORE ORBITALS:     0   (    0A1  +    0B1  +    0B2  +    0A2  )
 NUMBER OF OUTER CORE ORBITALS:     1   (    1A1  +    0B1  +    0B2  +    0A2  )
 NUMBER OF VALENCE ORBITALS:        6   (    3A1  +    1B1  +    2B2  +    0A2  )


 NUCLEAR REPULSION ENERGY    9.17903837

 Eigenvalues of metric

         1 0.176E-01 0.508E-01 0.159E+00 0.223E+00 0.515E+00 0.986E+00 0.101E+01 0.129E+01
         2 0.183E+00 0.522E+00 0.110E+01 0.224E+01
         3 0.448E-01 0.985E-01 0.170E+00 0.665E+00 0.102E+01 0.116E+01 0.254E+01
         4 0.620E+00 0.133E+01


 Contracted 2-electron integrals neglected if value below      1.0D-11
 AO integral compression algorithm  1   Integral accuracy      1.0D-11

     0.786 MB (compressed) written to integral file (100.0%)

     Node minimum: 0.262 MB, node maximum: 0.262 MB


 NUMBER OF SORTED TWO-ELECTRON INTEGRALS:       4533.     BUFFER LENGTH:  32768
 NUMBER OF SEGMENTS:   1  SEGMENT LENGTH:       4533      RECORD LENGTH: 524288

 Memory used in sort:       0.56 MW

 SORT1 READ       19080. AND WROTE        4019. INTEGRALS IN      1 RECORDS. CPU TIME:     0.00 SEC, REAL TIME:     0.00 SEC
 SORT2 READ       12665. AND WROTE       13826. INTEGRALS IN      3 RECORDS. CPU TIME:     0.00 SEC, REAL TIME:     0.01 SEC

 Node minimum:        4366.  Node maximum:        4927. integrals

 OPERATOR DM      FOR CENTER  0  COORDINATES:    0.000000    0.000000    0.000000


 **********************************************************************************************************************************
 DATASETS  * FILE   NREC   LENGTH (MB)   RECORD NAMES
              1      18       28.57       500      610      700      900      950      970     1000      129      960     1100   
                                          VAR    BASINP    GEOM    SYMINP    ZMAT    AOBASIS   BASIS     P2S    ABASIS      S 
                                         1400     1410     1200     1210     1080     1600     1650     1700   
                                           T        V       H0       H01     AOSYM     SMH    MOLCAS    OPER   

              2       5       11.72       500      610      700     1000      520   
                                          VAR    BASINP    GEOM     BASIS   MCVARS    

 PROGRAMS   *        TOTAL       INT      FILE
 CPU TIMES  *         0.21      0.10      0.00
 REAL TIME  *         0.30 SEC
 DISK USED  *        40.34 MB (local),      133.11 MB (total)
 GA USED    *         0.00 MB       (max)       0.00 MB       (current)
 **********************************************************************************************************************************


 Program * Restricted Hartree-Fock

 Orbital guess generated from atomic densities. Full valence occupancy:    4   1   2   0

 Initial occupancy:   3   1   1   0

 NELEC=   10   SYM=1   MS2= 0   THRE=1.0D-08   THRD=3.2D-06   THRG=3.2D-06  HFMA2=F  DIIS_START=2   DIIS_MAX=10   DIIS_INCORE=F

 Level shifts:    0.00 (CLOSED)    0.00 (OPEN)    0.30 (GAP_MIN)

 ITER           ETOT              DE          GRAD        DDIFF     DIIS  NEXP   TIME(IT)  TIME(TOT)  DIAG
   1      -75.98829113     -75.98829113     0.00D+00     0.41D+00     0     0       0.00      0.00    start
   2      -76.01799920      -0.02970807     0.37D-01     0.78D-01     1     0       0.00      0.00    diag
   3      -76.02645910      -0.00845990     0.20D-01     0.25D-01     2     0       0.00      0.00    diag
   4      -76.02667592      -0.00021682     0.22D-02     0.48D-02     3     0       0.00      0.00    diag
   5      -76.02669351      -0.00001760     0.59D-03     0.15D-02     4     0       0.00      0.00    diag
   6      -76.02669408      -0.00000056     0.93D-04     0.24D-03     5     0       0.00      0.00    diag
   7      -76.02669409      -0.00000001     0.13D-04     0.42D-04     6     0       0.00      0.00    diag
   8      -76.02669409      -0.00000000     0.11D-05     0.29D-05     7     0       0.00      0.00    fixocc
   9      -76.02669409      -0.00000000     0.10D-06     0.21D-06     0     0       0.00      0.00    diag

 Final occupancy:   3   1   1   0

 !RHF STATE 1.1 Energy                -76.026694090157
  RHF One-electron energy            -123.119604630100
  RHF Two-electron energy              37.913872171845
  RHF Kinetic energy                   75.983064990123
  RHF Nuclear energy                    9.179038368099
  RHF Virial quotient                  -1.000574195053

 !RHF STATE 1.1 Dipole moment           0.00000000     0.00000000     0.81580972
 Dipole moment /Debye                   0.00000000     0.00000000     2.07358148

 Orbital energies:

           1.1          2.1          3.1          4.1          5.1
    -20.551315    -1.336559    -0.568322     0.185044     0.857178

           1.2          2.2          3.2
     -0.493384     1.200098     1.668592

           1.3          2.3          3.3
     -0.696350     0.256099     0.784512

           1.4          2.4
      1.479159     3.333199


 HOMO      1.2    -0.493384 =     -13.4257eV
 LUMO      4.1     0.185044 =       5.0353eV
 LUMO-HOMO         0.678428 =      18.4610eV

 Orbitals saved in record  2100.2


 **********************************************************************************************************************************
 DATASETS  * FILE   NREC   LENGTH (MB)   RECORD NAMES
              1      18       28.57       500      610      700      900      950      970     1000      129      960     1100   
                                          VAR    BASINP    GEOM    SYMINP    ZMAT    AOBASIS   BASIS     P2S    ABASIS      S 
                                         1400     1410     1200     1210     1080     1600     1650     1700   
                                           T        V       H0       H01     AOSYM     SMH    MOLCAS    OPER   

              2       6       11.86       500      610      700     1000      520     2100   
                                          VAR    BASINP    GEOM     BASIS   MCVARS     RHF  

 PROGRAMS   *        TOTAL    HF-SCF       INT      FILE
 CPU TIMES  *         0.22      0.00      0.10      0.00
 REAL TIME  *         0.31 SEC
 DISK USED  *        40.48 MB (local),      133.55 MB (total)
 GA USED    *         0.00 MB       (max)       0.00 MB       (current)
 **********************************************************************************************************************************
 SETTING II             =         1.00000000                                  
 SETTING POINTGROUP(1)  =    C2v
 SETTING E(1)           =       -76.02669409  AU                              
 SETTING GROUP(1)       =    C2v

 HF/cc-pVDZ energy=    -76.026694090157

          HF-SCF
    -76.02669409
 **********************************************************************************************************************************
 Molpro calculation terminated
 ***,
 file,2,h2o2.wfu
 symmetry,x
 hf
 ii=ii+1,pointgroup(ii)=pgroup,e(ii)=energy,group(ii)='Cs'

 Variables initialized (1028), CPU time= 0.00 sec
 Commands initialized (840), CPU time= 0.00 sec, 684 directives.
 Default parameters read. Elapsed time= 0.05 sec

 Checking input...
 Passed
1


                                         ***  PROGRAM SYSTEM MOLPRO  ***
                                       Copyright, TTI GmbH Stuttgart, 2015
                                    Version 2022.4 linked Fri Dec 23 11:22:17 2022


 **********************************************************************************************************************************
 LABEL *                                                                                 
  64 bit mpp version                                                                     DATE: 23-Dec-22          TIME: 11:32:30  
 **********************************************************************************************************************************

 SHA1:             7e44cf2f6be76d642bd6abc86082413581aa3b85
 **********************************************************************************************************************************

 Memory per process:        32 MW
 Total memory per node:     96 MW

 GA preallocation disabled
 GA check disabled

 Variable memory set to 32.0 MW



 Permanent file  2  h2o2.wfu assigned.  Implementation=df    Size= 11.86 MB


 PROGRAM * RESTART 


 Reading variables from file 2

 _FNUC           =      0.00000000
 _BASIS          =    VDZ
 _NELEC          =     10.00000000
 _PROGRAM        =    HF-SCF
 _NCEN           =      3.00000000
 _DMZ            =      0.81580972
 _DMX_SCF        =      0.00000000
 _DMY_SCF        =      0.00000000
 _DMZ_SCF        =      0.81580972
 _HOMO           =      1.20000000
 _EHOMO          =     -0.49338379
 _LUMO           =      4.10000000
 _ELUMO          =      0.18504420
 _ENERGY         =    -76.02669409
 _ENERGY_METHOD  =    HF
 _ENERGY_BASIS   =    cc-pVDZ
 _ENUC           =      9.17903837
 _IPROC_MPP      =      0.00000000
 _IPROC_MPPX     =      0.00000000
 _ORBITAL        =   2100.20000000
 _STATUS         =      1.00000000
 _PGROUP         =    C2v 
 _TIME           =    11:32:29
 _SYM_CATION     =      2.00000000
 R               =      1.81246829
 THETA           =    103.49307128
 II              =      1.00000000
 POINTGROUP      =    C2v
 E               =    -76.02669409
 GROUP           =    C2v

 Geometry written to block  1 of record 700


 **********************************************************************************************************************************
 DATASETS  * FILE   NREC   LENGTH (MB)   RECORD NAMES
              2       6       11.86       500      610      700     1000      520     2100   
                                          VAR    BASINP    GEOM     BASIS   MCVARS     RHF  

 PROGRAMS   *        TOTAL   RESTART
 CPU TIMES  *         0.10      0.01
 REAL TIME  *         0.14 SEC
 DISK USED  *        40.48 MB (local),      133.55 MB (total)
 **********************************************************************************************************************************


 Recomputing integrals since basis changed


 Using spherical harmonics

 Library entry H      S cc-pVDZ              selected for orbital group  1
 Library entry H      P cc-pVDZ              selected for orbital group  1
 Library entry O      S cc-pVDZ              selected for orbital group  2
 Library entry O      P cc-pVDZ              selected for orbital group  2
 Library entry O      D cc-pVDZ              selected for orbital group  2


 PROGRAM * SEWARD (Integral evaluation for generally contracted gaussian basis sets)     Author: Roland Lindh, 1990

 Geometry written to block  1 of record 701

 Orientation using atomic masses  
 Molecule type: Asymmetric top,     Order of principal axis = 2
 User-specified symmetry elements: X,Y
 Symmetry elements: X
 Rotational constants:     284.7407869    800.5104367    441.9375428 GHz  (calculated with average atomic masses)

 Point group  Cs  



 ATOMIC COORDINATES

 NR  ATOM    CHARGE       X              Y              Z

   1  H       1.00    0.000000000   -1.423294186    0.996604776
   2  O       8.00    0.000000000    0.000000000   -0.125569436
   3  H       1.00    0.000000000    1.423294186    0.996604776

 Bond lengths in Bohr (Angstrom)

 1-2  1.812468290  2-3  1.812468290
     ( 0.959116915)     ( 0.959116915)

 Bond angles

  1-2-3  103.49307128

 NUCLEAR CHARGE:                   10
 NUMBER OF PRIMITIVE AOS:          41
 NUMBER OF SYMMETRY AOS:           40
 NUMBER OF CONTRACTIONS:           24   (   18A'  +    6A"  )
 NUMBER OF INNER CORE ORBITALS:     0   (    0A'  +    0A"  )
 NUMBER OF OUTER CORE ORBITALS:     1   (    1A'  +    0A"  )
 NUMBER OF VALENCE ORBITALS:        6   (    5A'  +    1A"  )

 SYMMETRY CHANGED: INITIALIZING OCCUPATION


 NUCLEAR REPULSION ENERGY    9.17903837


 Eigenvalues of metric

         1 0.176E-01 0.448E-01 0.508E-01 0.985E-01 0.159E+00 0.170E+00 0.223E+00 0.515E+00
         2 0.183E+00 0.522E+00 0.620E+00 0.110E+01 0.133E+01 0.224E+01


 Contracted 2-electron integrals neglected if value below      1.0D-11
 AO integral compression algorithm  1   Integral accuracy      1.0D-11

     0.786 MB (compressed) written to integral file (100.0%)

     Node minimum: 0.262 MB, node maximum: 0.262 MB


 NUMBER OF SORTED TWO-ELECTRON INTEGRALS:       8634.     BUFFER LENGTH:  32768
 NUMBER OF SEGMENTS:   1  SEGMENT LENGTH:       8634      RECORD LENGTH: 524288

 Memory used in sort:       0.57 MW

 SORT1 READ       33005. AND WROTE        7468. INTEGRALS IN      1 RECORDS. CPU TIME:     0.00 SEC, REAL TIME:     0.00 SEC
 SORT2 READ       22725. AND WROTE       25710. INTEGRALS IN      3 RECORDS. CPU TIME:     0.00 SEC, REAL TIME:     0.01 SEC

 Node minimum:        8506.  Node maximum:        8634. integrals

 OPERATOR DM      FOR CENTER  0  COORDINATES:    0.000000    0.000000    0.000000


 **********************************************************************************************************************************
 DATASETS  * FILE   NREC   LENGTH (MB)   RECORD NAMES
              1      19       28.77       500      700      610      701      900      950      970     1001      129      960   
                                          VAR     GEOM    BASINP    GEOM    SYMINP    ZMAT    AOBASIS   BASIS     P2S    ABASIS    
                                         1100     1400     1410     1200     1210     1080     1600     1650     1700   
                                           S        T        V       H0       H01     AOSYM     SMH    MOLCAS    OPER   

              2       8       12.06       500      610      700     1000      520     2100      701     1001   
                                          VAR    BASINP    GEOM     BASIS   MCVARS     RHF     GEOM     BASIS   

 PROGRAMS   *        TOTAL       INT   RESTART
 CPU TIMES  *         0.16      0.06      0.01
 REAL TIME  *         0.25 SEC
 DISK USED  *        40.86 MB (local),      134.74 MB (total)
 GA USED    *         0.00 MB       (max)       0.00 MB       (current)
 **********************************************************************************************************************************


 Program * Restricted Hartree-Fock

 Orbital guess generated from atomic densities. Full valence occupancy:    6   1

 Initial occupancy:   4   1

 NELEC=   10   SYM=1   MS2= 0   THRE=1.0D-08   THRD=3.2D-06   THRG=3.2D-06  HFMA2=F  DIIS_START=2   DIIS_MAX=10   DIIS_INCORE=F

 Level shifts:    0.00 (CLOSED)    0.00 (OPEN)    0.30 (GAP_MIN)

 ITER           ETOT              DE          GRAD        DDIFF     DIIS  NEXP   TIME(IT)  TIME(TOT)  DIAG
   1      -75.98829113     -75.98829113     0.00D+00     0.30D+00     0     0       0.00      0.00    start
   2      -76.01799920      -0.02970807     0.27D-01     0.58D-01     1     0       0.00      0.00    diag
   3      -76.02645910      -0.00845990     0.14D-01     0.19D-01     2     0       0.00      0.00    diag
   4      -76.02667592      -0.00021682     0.16D-02     0.35D-02     3     0       0.00      0.00    diag
   5      -76.02669351      -0.00001760     0.43D-03     0.11D-02     4     0       0.00      0.00    diag
   6      -76.02669408      -0.00000056     0.68D-04     0.17D-03     5     0       0.00      0.00    diag
   7      -76.02669409      -0.00000001     0.99D-05     0.31D-04     6     0       0.01      0.01    diag
   8      -76.02669409      -0.00000000     0.80D-06     0.22D-05     7     0       0.00      0.01    fixocc
   9      -76.02669409      -0.00000000     0.75D-07     0.16D-06     0     0       0.00      0.01    diag

 Final occupancy:   4   1

 !RHF STATE 1.1 Energy                -76.026694090142
  RHF One-electron energy            -123.119604630242
  RHF Two-electron energy              37.913872172001
  RHF Kinetic energy                   75.983064990572
  RHF Nuclear energy                    9.179038368099
  RHF Virial quotient                  -1.000574195047

 !RHF STATE 1.1 Dipole moment           0.00000000     0.00000000     0.81580972
 Dipole moment /Debye                   0.00000000     0.00000000     2.07358148

 Orbital energies:

           1.1          2.1          3.1          4.1          5.1          6.1
    -20.551315    -1.336559    -0.696350    -0.568322     0.185044     0.256099

           1.2          2.2          3.2
     -0.493384     1.200098     1.479159


 HOMO      1.2    -0.493384 =     -13.4257eV
 LUMO      5.1     0.185044 =       5.0353eV
 LUMO-HOMO         0.678428 =      18.4610eV

 Orbitals saved in record  2101.2


 **********************************************************************************************************************************
 DATASETS  * FILE   NREC   LENGTH (MB)   RECORD NAMES
              1      19       28.77       500      700      610      701      900      950      970     1001      129      960   
                                          VAR     GEOM    BASINP    GEOM    SYMINP    ZMAT    AOBASIS   BASIS     P2S    ABASIS    
                                         1100     1400     1410     1200     1210     1080     1600     1650     1700   
                                           S        T        V       H0       H01     AOSYM     SMH    MOLCAS    OPER   

              2       9       12.16       500      610      700     1000      520     2100      701     1001     2101   
                                          VAR    BASINP    GEOM     BASIS   MCVARS     RHF     GEOM     BASIS     RHF  

 PROGRAMS   *        TOTAL    HF-SCF       INT   RESTART
 CPU TIMES  *         0.17      0.01      0.06      0.01
 REAL TIME  *         0.26 SEC
 DISK USED  *        40.99 MB (local),      135.13 MB (total)
 GA USED    *         0.00 MB       (max)       0.00 MB       (current)
 **********************************************************************************************************************************
 SETTING II             =         2.00000000                                  
 SETTING POINTGROUP(2)  =    Cs
 SETTING E(2)           =       -76.02669409  AU                              
 SETTING GROUP(2)       =    Cs

 HF/cc-pVDZ energy=    -76.026694090142

          HF-SCF
    -76.02669409
 **********************************************************************************************************************************
 Molpro calculation terminated
 ***,
 symmetry,x,y;geometry={
 h
 o,h,r
 h,o,r,h,theta
 }
 hf
 o2.wfu
 symmetry,x,y;geometry={
 h
 o,h,r
 h,o,r,h,theta
 }
 hf
 ii=ii+1,pointgroup(ii)=pgroup,e(ii)=energy,group(ii)='C2v'
 

 Variables initialized (1028), CPU time= 0.00 sec
 Commands initialized (840), CPU time= 0.01 sec, 684 directives.
 Default parameters read. Elapsed time= 0.06 sec

 Checking input...

 Unknown command or directive O2.WFU

 GLOBAL ERROR checkinp on processor   0                                       
h2o_restart2.test: ERRORS DETECTED: non-zero return code ... inspect output
