
 Nodes          nprocs
 buildkitsandbox    3
 Distribution of processes:   nprocs(total)=    4   nprocs(compute)=    3   nprocs(helper)=    1
 GA implementation: MPI file
 GA implementation (serial work in mppx): MPI file

 Using customized tuning parameters: mindgm=1; mindgv=20; mindgc=4; mindgr=1; noblas=0; minvec=7
 default implementation of scratch files=sf


 Variables initialized (1028), CPU time= 0.01 sec
 Commands initialized (840), CPU time= 0.00 sec, 684 directives.
 Default parameters read. Elapsed time= 0.06 sec

 Checking input...
 Passed
1


                                         ***  PROGRAM SYSTEM MOLPRO  ***
                                       Copyright, TTI GmbH Stuttgart, 2015
                                    Version 2022.4 linked Fri Dec 23 11:22:17 2022


 **********************************************************************************************************************************
 LABEL *   restarb
  64 bit mpp version                                                                     DATE: 23-Dec-22          TIME: 11:32:28
 **********************************************************************************************************************************

 SHA1:             7e44cf2f6be76d642bd6abc86082413581aa3b85
 **********************************************************************************************************************************

 Memory per process:        32 MW
 Total memory per node:     96 MW

 GA preallocation disabled
 GA check disabled

 Variable memory set to 32.0 MW



 Temporary file  1  h2o.int  assigned.  Implementation=df
 Temporary file  2  h2o.wfu  assigned.  Implementation=df



 **********************************************************************************************************************************
 DATASETS  * FILE   NREC   LENGTH (MB)   RECORD NAMES
              1       1        0.03       500
                                          VAR

              2       1        0.03       500
                                          VAR

 PROGRAMS   *        TOTAL      FILE
 CPU TIMES  *         0.11      0.00
 REAL TIME  *         0.12 SEC
 DISK USED  *         0.10 MB (local),        0.30 MB (total)
 **********************************************************************************************************************************


 Recomputing integrals since basis changed


 Using spherical harmonics

 Library entry H      S cc-pVDZ              selected for orbital group  1
 Library entry H      P cc-pVDZ              selected for orbital group  1
 Library entry O      S cc-pVDZ              selected for orbital group  2
 Library entry O      P cc-pVDZ              selected for orbital group  2
 Library entry O      D cc-pVDZ              selected for orbital group  2


 PROGRAM * SEWARD (Integral evaluation for generally contracted gaussian basis sets)     Author: Roland Lindh, 1990

 Geometry written to block  1 of record 700

 Orientation using atomic masses
 Molecule type: Asymmetric top,     Order of principal axis = 2
 Symmetry elements: X,Y
 Rotational constants:     234.6649799    609.9476781    381.4014349 GHz  (calculated with average atomic masses)

 Point group  C2v



 ATOMIC COORDINATES

 NR  ATOM    CHARGE       X              Y              Z

   1  H1      1.00    0.000000000   -1.532088886    1.141721481
   2  H2      1.00    0.000000000    1.532088886    1.141721481
   3  O       8.00    0.000000000    0.000000000   -0.143853738

 Bond lengths in Bohr (Angstrom)

 1-3  2.000000000  2-3  2.000000000
     ( 1.058354422)     ( 1.058354422)

 Bond angles

  1-3-2  100.00000000

 NUCLEAR CHARGE:                   10
 NUMBER OF PRIMITIVE AOS:          41
 NUMBER OF SYMMETRY AOS:           40
 NUMBER OF CONTRACTIONS:           24   (   11A1  +    4B1  +    7B2  +    2A2  )
 NUMBER OF INNER CORE ORBITALS:     0   (    0A1  +    0B1  +    0B2  +    0A2  )
 NUMBER OF OUTER CORE ORBITALS:     1   (    1A1  +    0B1  +    0B2  +    0A2  )
 NUMBER OF VALENCE ORBITALS:        6   (    3A1  +    1B1  +    2B2  +    0A2  )


 NUCLEAR REPULSION ENERGY    8.32635182

 Eigenvalues of metric

         1 0.192E-01 0.627E-01 0.174E+00 0.240E+00 0.616E+00 0.987E+00 0.101E+01 0.127E+01
         2 0.183E+00 0.617E+00 0.110E+01 0.214E+01
         3 0.589E-01 0.104E+00 0.204E+00 0.747E+00 0.985E+00 0.124E+01 0.254E+01
         4 0.708E+00 0.126E+01


 Contracted 2-electron integrals neglected if value below      1.0D-11
 AO integral compression algorithm  1   Integral accuracy      1.0D-11

     0.786 MB (compressed) written to integral file (100.0%)

     Node minimum: 0.262 MB, node maximum: 0.262 MB


 NUMBER OF SORTED TWO-ELECTRON INTEGRALS:       4366.     BUFFER LENGTH:  32768
 NUMBER OF SEGMENTS:   1  SEGMENT LENGTH:       4366      RECORD LENGTH: 524288

 Memory used in sort:       0.56 MW

 SORT1 READ       19080. AND WROTE        4002. INTEGRALS IN      1 RECORDS. CPU TIME:     0.00 SEC, REAL TIME:     0.01 SEC
 SORT2 READ       12665. AND WROTE       13826. INTEGRALS IN      3 RECORDS. CPU TIME:     0.00 SEC, REAL TIME:     0.00 SEC

 Node minimum:        4366.  Node maximum:        4927. integrals

 OPERATOR DM      FOR CENTER  0  COORDINATES:    0.000000    0.000000    0.000000


 **********************************************************************************************************************************
 DATASETS  * FILE   NREC   LENGTH (MB)   RECORD NAMES
              1      18       28.57       500      610      700      900      950      970     1000      129      960     1100
                                          VAR    BASINP    GEOM    SYMINP    ZMAT    AOBASIS   BASIS     P2S    ABASIS      S
                                         1400     1410     1200     1210     1080     1600     1650     1700
                                           T        V       H0       H01     AOSYM     SMH    MOLCAS    OPER

              2       5       11.72       500      610      700     1000      520
                                          VAR    BASINP    GEOM     BASIS   MCVARS

 PROGRAMS   *        TOTAL       INT      FILE
 CPU TIMES  *         0.19      0.08      0.00
 REAL TIME  *         0.30 SEC
 DISK USED  *        40.33 MB (local),      133.08 MB (total)
 GA USED    *         0.00 MB       (max)       0.00 MB       (current)
 **********************************************************************************************************************************


 Program * Restricted Hartree-Fock

 Orbital guess generated from atomic densities.

 Initial occupancy:   3   1   1   0

 NELEC=   10   SYM=1   MS2= 0   THRE=1.0D-08   THRD=3.2D-06   THRG=3.2D-06  HFMA2=F  DIIS_START=2   DIIS_MAX=10   DIIS_INCORE=F

 Level shifts:    0.00 (CLOSED)    0.00 (OPEN)    0.30 (GAP_MIN)

 ITER           ETOT              DE          GRAD        DDIFF     DIIS  NEXP   TIME(IT)  TIME(TOT)  DIAG
   1      -75.95914045     -75.95914045     0.00D+00     0.39D+00     0     0       0.00      0.00    start
   2      -75.99246842      -0.03332797     0.39D-01     0.80D-01     1     0       0.00      0.00    diag
   3      -76.00533318      -0.01286476     0.24D-01     0.30D-01     2     0       0.00      0.00    diag
   4      -76.00565375      -0.00032057     0.24D-02     0.51D-02     3     0       0.00      0.00    diag
   5      -76.00568948      -0.00003573     0.82D-03     0.20D-02     4     0       0.00      0.00    diag
   6      -76.00569048      -0.00000100     0.12D-03     0.33D-03     5     0       0.00      0.00    diag
   7      -76.00569050      -0.00000002     0.16D-04     0.48D-04     6     0       0.00      0.00    diag
   8      -76.00569050      -0.00000000     0.15D-05     0.37D-05     7     0       0.00      0.00    fixocc
   9      -76.00569050      -0.00000000     0.46D-06     0.14D-05     8     0       0.00      0.00    diag
  10      -76.00569050      -0.00000000     0.10D-06     0.19D-06     0     0       0.00      0.00    diag/orth

 Final occupancy:   3   1   1   0

 !RHF STATE 1.1 Energy                -76.005690499053
  RHF One-electron energy            -121.556334945792
  RHF Two-electron energy              37.224292624405
  RHF Kinetic energy                   75.668911166411
  RHF Nuclear energy                    8.326351822333
  RHF Virial quotient                  -1.004450696164

 !RHF STATE 1.1 Dipole moment           0.00000000     0.00000000     0.87014910
 Dipole moment /Debye                   0.00000000     0.00000000     2.21169841

 Orbital energies:

           1.1          2.1          3.1          4.1          5.1
    -20.570389    -1.295100    -0.556894     0.166322     0.787178

           1.2          2.2          3.2
     -0.489507     1.190772     1.642089

           1.3          2.3          3.3
     -0.641985     0.238145     0.713977

           1.4          2.4
      1.468275     3.231575


 HOMO      1.2    -0.489507 =     -13.3202eV
 LUMO      4.1     0.166322 =       4.5259eV
 LUMO-HOMO         0.655829 =      17.8460eV

 Orbitals saved in record  2100.2


 **********************************************************************************************************************************
 DATASETS  * FILE   NREC   LENGTH (MB)   RECORD NAMES
              1      18       28.57       500      610      700      900      950      970     1000      129      960     1100
                                          VAR    BASINP    GEOM    SYMINP    ZMAT    AOBASIS   BASIS     P2S    ABASIS      S
                                         1400     1410     1200     1210     1080     1600     1650     1700
                                           T        V       H0       H01     AOSYM     SMH    MOLCAS    OPER

              2       6       11.85       500      610      700     1000      520     2100
                                          VAR    BASINP    GEOM     BASIS   MCVARS     RHF

 PROGRAMS   *        TOTAL    HF-SCF       INT      FILE
 CPU TIMES  *         0.20      0.01      0.08      0.00
 REAL TIME  *         0.32 SEC
 DISK USED  *        40.47 MB (local),      133.52 MB (total)
 GA USED    *         0.00 MB       (max)       0.00 MB       (current)
 **********************************************************************************************************************************
 SETTING E(1)           =       -76.00569050  AU
 SETTING METHOD(1)      =    hf


 PROGRAM * MP2 (Closed-shell)     Authors: C. Hampel, H.-J. Werner, 1991, M. Deegan, P.J. Knowles, 1992


 Convergence thresholds:  THRVAR = 1.00D-08  THRDEN = 1.00D-06

 Number of core orbitals:           1 (   1   0   0   0 )
 Number of closed-shell orbitals:   4 (   2   1   1   0 )
 Number of external orbitals:      19 (   8   3   6   2 )

 Molecular orbitals read from record     2100.2  Type=RHF/CANONICAL

 Number of N-1 electron functions:               4
 Number of N-2 electron functions:              10
 Number of singly external CSFs:                25
 Number of doubly external CSFs:               805
 Total number of CSFs:                         831

 Length of J-op  integral file:               0.00 MB
 Length of K-op  integral file:               0.01 MB

 Integral transformation finished. Total CPU:   0.00 sec, npass=  1  Memory used:   0.07 MW

 Memory needed for MP2:                      0.00 MW

 SCS-MP2 correlation energy:           -0.206421597750   (PS=  1.200000  PT=  0.333333)
 SCS-MP2 total energy:                -76.212112096804


  Reference energy                    -76.005690499053
  MP2 singlet pair energy              -0.131540895229
  MP2 triplet pair energy              -0.078062984157
  MP2 correlation energy               -0.209603879386

 !MP2 total energy                    -76.215294378439


 **********************************************************************************************************************************
 DATASETS  * FILE   NREC   LENGTH (MB)   RECORD NAMES
              1      19       28.59       500      610      700      900      950      970     1000      129      960     1100
                                          VAR    BASINP    GEOM    SYMINP    ZMAT    AOBASIS   BASIS     P2S    ABASIS      S
                                         1400     1410     1200     1210     1080     1600     1650     1700     1380
                                           T        V       H0       H01     AOSYM     SMH    MOLCAS    OPER     JKOP

              2       6       11.85       500      610      700     1000      520     2100
                                          VAR    BASINP    GEOM     BASIS   MCVARS     RHF

 PROGRAMS   *        TOTAL       MP2    HF-SCF       INT      FILE
 CPU TIMES  *         0.22      0.01      0.01      0.08      0.00
 REAL TIME  *         0.35 SEC
 DISK USED  *        40.48 MB (local),      133.55 MB (total)
 SF USED    *         0.06 MB
 GA USED    *         0.00 MB       (max)       0.00 MB       (current)
 **********************************************************************************************************************************
 SETTING E(2)           =       -76.21529438  AU
 SETTING METHOD(2)      =    mp2


 PROGRAM * CCSD (Closed-shell coupled cluster)     Authors: C. Hampel, H.-J. Werner, 1991, M. Deegan, P.J. Knowles, 1992


 Convergence thresholds:  THRVAR = 1.00D-08  THRDEN = 1.00D-06

 CCSD(T)     terms to be evaluated (factor= 1.000)


 Number of core orbitals:           1 (   1   0   0   0 )
 Number of closed-shell orbitals:   4 (   2   1   1   0 )
 Number of external orbitals:      19 (   8   3   6   2 )

 Molecular orbitals read from record     2100.2  Type=RHF/CANONICAL

 Number of N-1 electron functions:               4
 Number of N-2 electron functions:              10
 Number of singly external CSFs:                25
 Number of doubly external CSFs:               805
 Total number of CSFs:                         831

 Length of J-op  integral file:               0.00 MB
 Length of K-op  integral file:               0.01 MB
 Length of 3-ext integral record:             0.00 MB

 Memory could be reduced to 0.07 Mwords without degradation in triples

 Integral transformation finished. Total CPU:   0.00 sec, npass=  1  Memory used:   0.07 MW
   1      1.05919079    -0.21780332   -76.22349382    -0.21780332    -0.21780332  0.44D-03  0.93D-03
   2      1.06372120    -0.21906786   -76.22475836    -0.00126454    -0.21906786  0.10D-04  0.11D-03
   3      1.06521619    -0.21920085   -76.22489135    -0.00013299    -0.21920085  0.44D-05  0.49D-05
   4      1.06560837    -0.21921108   -76.22490158    -0.00001023    -0.21921108  0.36D-06  0.37D-06
   5      1.06569530    -0.21920877   -76.22489927     0.00000231    -0.21920877  0.10D-06  0.25D-07
   6      1.06571179    -0.21920856   -76.22489906     0.00000021    -0.21920856  0.11D-07  0.26D-08
   7      1.06571795    -0.21920846   -76.22489896     0.00000011    -0.21920846  0.52D-09  0.26D-09


 Total CPU time for triples:      0.00 sec


 RESULTS
 =======

  Reference energy                    -76.005690499053
  CCSD singlet pair energy              0.000000000000
  CCSD triplet pair energy              0.000000000000
  CCSD correlation energy              -0.219208458880

  Triples (T) contribution             -0.003634072637
  Total correlation energy             -0.222842531517

  CCSD total energy                   -76.224898957933
  CCSD[T] energy                      -76.228657477070
  CCSD-T energy                       -76.228455969665
 !CCSD(T) total energy                -76.228533030570

 Timing summary (sec):

 STEP                 CPU(USER)    SYS     CPU(TOT)    WALL
 CCSD iterations         0.03      0.00      0.03      0.01

 Program statistics:

 Available memory in ccsd:                31999933
 Min. memory needed in ccsd:                  5195
 Max. memory used in ccsd:                    5547
 Max. memory used in cckext:                 38269 ( 7 integral passes)



 **********************************************************************************************************************************
 DATASETS  * FILE   NREC   LENGTH (MB)   RECORD NAMES
              1      19       28.62       500      610      700      900      950      970     1000      129      960     1100
                                          VAR    BASINP    GEOM    SYMINP    ZMAT    AOBASIS   BASIS     P2S    ABASIS      S
                                         1400     1410     1200     1210     1080     1600     1650     1700     1380
                                           T        V       H0       H01     AOSYM     SMH    MOLCAS    OPER     JKOP

              2       6       11.85       500      610      700     1000      520     2100
                                          VAR    BASINP    GEOM     BASIS   MCVARS     RHF

 PROGRAMS   *        TOTAL   CCSD(T)       MP2    HF-SCF       INT      FILE
 CPU TIMES  *         0.27      0.06      0.01      0.01      0.08      0.00
 REAL TIME  *         0.40 SEC
 DISK USED  *        40.51 MB (local),      133.73 MB (total)
 SF USED    *         0.14 MB
 GA USED    *         0.00 MB       (max)       0.00 MB       (current)
 **********************************************************************************************************************************
 SETTING E(3)           =       -76.22853303  AU
 SETTING METHOD(3)      =    ccsd(t)

 CCSD(T)/cc-pVDZ energy=    -76.228533030570

         CCSD(T)             MP2          HF-SCF
    -76.22853303    -76.21529438    -76.00569050
 **********************************************************************************************************************************
 Molpro calculation terminated

 Variables initialized (1028), CPU time= 0.01 sec
 Commands initialized (840), CPU time= 0.01 sec, 684 directives.
 Default parameters read. Elapsed time= 0.07 sec

 Checking input...
 Passed
1


                                         ***  PROGRAM SYSTEM MOLPRO  ***
                                       Copyright, TTI GmbH Stuttgart, 2015
                                    Version 2022.4 linked Fri Dec 23 11:22:17 2022


 **********************************************************************************************************************************
 LABEL *   restarb
  64 bit mpp version                                                                     DATE: 23-Dec-22          TIME: 11:32:28
 **********************************************************************************************************************************

 SHA1:             7e44cf2f6be76d642bd6abc86082413581aa3b85
 **********************************************************************************************************************************

 Memory per process:        32 MW
 Total memory per node:     96 MW

 GA preallocation disabled
 GA check disabled

 Variable memory set to 32.0 MW



 Recomputing integrals since basis changed


 Using spherical harmonics

 Library entry H      S cc-pVDZ              selected for orbital group  1
 Library entry H      P cc-pVDZ              selected for orbital group  1
 ? Error
 ? Compression error
 ? The problem occurs in binput:msomat

 GLOBAL ERROR fehler on processor   2                                         
